title                   = NPT
define                  = -DPOSRES  ; position restrain the protein
; Run parameters
integrator              = md        ; leap-frog integrator
nsteps                  = 50000     ; 2 * 50000 = 100 ps
dt                      = 0.002     ; 2 fs
; Output control
nstxout                 = 0       ; save coordinates every 1.0 ps
nstvout                 = 0       ; save velocities every 1.0 ps
nstenergy               = 5000       ; save energies every 1.0 ps
nstlog                  = 5000       ; update log file every 1.0 ps
nstxout-compressed      = 5000
; Bond parameters
continuation            = yes       ; Restarting after NVT 
constraint_algorithm    = lincs     ; holonomic constraints 
constraints             = h-bonds   ; bonds involving H are constrained
lincs_iter              = 1         ; accuracy of LINCS
lincs_order             = 4         ; also related to accuracy
; Nonbonded settings 
cutoff-scheme           = Verlet    ; Buffered neighbor searching
ns_type                 = grid      ; search neighboring grid cells
nstlist                 = 10        ; 20 fs, largely irrelevant with Verlet scheme
rcoulomb                = 1.1       ; short-range electrostatic cutoff (in nm)
rvdw                    = 1.1       ; short-range van der Waals cutoff (in nm)
DispCorr                = EnerPres  ; account for cut-off vdW scheme
; Electrostatics
coulombtype             = PME       ; Particle Mesh Ewald for long-range electrostatics
pme_order               = 4         ; cubic interpolation
fourierspacing          = 0.16      ; grid spacing for FFT
; Temperature coupling is on
tcoupl                  = V-rescale             ; modified Berendsen thermostat
tc-grps                 = System
tau_t                   = 0.1
ref_t                   = 298.15
; Pressure coupling is on
pcoupl                  = Parrinello-Rahman     ; Pressure coupling on in NPT
pcoupltype              = isotropic             ; uniform scaling of box vectors
tau_p                   = 2.0                   ; time constant, in ps
ref_p                   = 1.0                   ; reference pressure, in bar
compressibility         = 4.5e-5                ; isothermal compressibility of water, bar^-1
refcoord_scaling        = com
; Periodic boundary conditions
pbc                     = xyz       ; 3-D PBC
; Velocity generation
gen_vel                 = no        ; Velocity generation is off
; FEP
free-energy              = yes
delta-lambda             = 0
init-lambda-state        = 0 
nstdhdl                  = 5000
calc-lambda-neighbors    = -1
sc-alpha                 = 0.2
sc-beta                  = 0.5
sc-coul                  = yes
sc-power                 = 1
sc-r-power               = 6
sc-sigma                 = 0.2
dhdl-derivatives         = yes
dhdl-print-energy        = potential
separate-dhdl-file       = yes
dh_hist_size             = 0
dh_hist_spacing          = 0.1