title                   = Production
; Run parameters
integrator              = md        ; leap-frog integrator
nsteps                  = 2500000    ; 2 * 500000 = 1000 ps (1 ns)
dt                      = 0.002     ; 2 fs
; Output control
nstxout                 = 0         ; suppress bulky .trr file by specifying 
nstvout                 = 0         ; 0 for output frequency of nstxout,
nstfout                 = 0         ; nstvout, and nstfout
nstenergy               = 2500      ; save energies every 10.0 ps
nstlog                  = 2500      ; update log file every 10.0 ps
nstxout-compressed      = 2500      ; save compressed coordinates every 10.0 ps
compressed-x-grps       = System    ; save the whole system
; Bond parameters
continuation            = yes       ; Restarting after NPT 
constraint_algorithm    = lincs     ; holonomic constraints 
constraints             = h-bonds   ; bonds involving H are constrained
lincs_iter              = 1         ; accuracy of LINCS
lincs_order             = 4         ; also related to accuracy
; Neighborsearching
cutoff-scheme           = Verlet    ; Buffered neighbor searching
ns_type                 = grid      ; search neighboring grid cells
nstlist                 = 30        
rcoulomb                = 1.1       ; short-range electrostatic cutoff (in nm)
rvdw                    = 1.1       ; short-range van der Waals cutoff (in nm)
; Electrostatics
coulombtype             = PME       ; Particle Mesh Ewald for long-range electrostatics
pme_order               = 4         ; cubic interpolation
fourierspacing          = 0.16      ; grid spacing for FFT
; Temperature coupling is on
tcoupl                  = V-rescale             ; modified Berendsen thermostat
tc-grps                 = System
tau_t                   = 0.1
ref_t                   = 298.15
; Pressure coupling is on
pcoupl                  = Parrinello-Rahman     ; Pressure coupling on in NPT
pcoupltype              = isotropic             ; uniform scaling of box vectors
tau_p                   = 2.0                   ; time constant, in ps
ref_p                   = 1.0                   ; reference pressure, in bar
compressibility         = 4.5e-5                ; isothermal compressibility of water, bar^-1
; Periodic boundary conditions
pbc                     = xyz       ; 3-D PBC
; Dispersion correction
DispCorr                = EnerPres  ; account for cut-off vdW scheme
; Velocity generation
gen_vel                 = no        ; Velocity generation is off
; FEP
free-energy              = yes
delta-lambda             = 0
init-lambda-state        = 0 
nstdhdl                  = 2500
calc-lambda-neighbors    = -1
sc-alpha                 = 0.2
sc-beta                  = 0.5
sc-coul                  = yes
sc-power                 = 1
sc-r-power               = 6
sc-sigma                 = 0.2
dhdl-derivatives         = yes
dhdl-print-energy        = potential
separate-dhdl-file       = yes
dh_hist_size             = 0
dh_hist_spacing          = 0.1