[ defaults ]
; nbfunc        comb-rule       gen-pairs       fudgeLJ fudgeQQ
1               2               yes             0.5     0.8333

#include "water.atp"

#include "ions.atp"

#include "MOL.atp"

#include "MOL.itp"

#ifdef POSRES
#include "posre_MOL.itp"
#endif

#include "amber99sb.ff/tip3p.itp"

#include "amber99sb.ff/ions.itp"

[ system ]
 Solvated

